LAMMPS data file via write_data, version 2 Aug 2023, timestep = 1000000, units = real

8776 atoms
7 atom types
4343 bonds
4 bond types
8181 angles
7 angle types
9393 dihedrals
4 dihedral types
2626 impropers
1 improper types

-41 35 xlo xhi
-41 35 ylo yhi
-61 71 zlo zhi

Masses

1 28.085
2 28.085
3 15.999
4 1.008
5 12.011
6 1.008
7 26.9815

Pair Coeffs # lj/cut/coul/long

1 0.1 4
2 0.1 4
3 0.17 3
4 0.03 2.5
5 0.066 3.5
6 0.03 2.5
7 0.3973 2.62

Bond Coeffs # harmonic

1 340 1.09
2 187 1.86
3 374 1.64
4 166 1.48

Angle Coeffs # harmonic

1 33 107.8
2 35 109.5
3 60 110
4 60 100
5 20 145
6 42.5 109.5
7 60 110

Dihedral Coeffs # opls

1 0 0 0 0
2 0 0 0 0
3 0 0 0 0
4 0 0 0.18 0

Improper Coeffs # cvff

1 0 -1 2

Atoms # full

7715 78 4 0.06 -38.09972825061894 -37.44143193958532 -4.342173605448126 1 1 1
7678 78 3 -0.5 -39.69180934213254 -36.835390471545026 -7.572340337586589 1 1 1
5906 37 4 0.06 -28.70468118820847 -37.3496086998344 -6.343903185545322 3 1 0
5905 37 5 -0.43 -28.073874775733568 -36.985974773226076 -7.148334320398404 3 1 0
5907 37 4 0.06 -28.550647163316587 -36.154179065480406 -7.497751534805213 3 1 0
5909 37 5 -0.43 -29.643200804139923 -38.70657540830548 -9.296337815667075 3 1 0
5910 37 4 0.06 -29.50002986466278 -39.569614896873915 -9.963133874376876 3 1 0
5911 37 4 0.06 -30.0990707373672 -37.84015609650396 -9.85480508657959 3 1 0
5916 37 4 0.06 -26.595741683960117 -37.20771861246195 -10.322512477559444 3 1 0
7712 78 4 0.06 -40.86975805523868 -34.59935497952021 -3.9307013333145897 1 1 1
7710 78 4 0.06 -40.80917591097847 -35.22291354272852 -2.2496702491673717 1 1 1
7698 78 4 0.06 -40.842435932750426 -37.05437356761865 -11.230664007745485 1 1 1
7697 78 5 -0.43 -40.98392098791456 -37.20561405010999 -10.135699362102919 1 1 1
5429 26 5 -0.43 -35.81230518968386 -26.33682168173675 -9.983308604649023 -5 2 1
5430 26 4 0.06 -35.31041509580092 -26.05225016597774 -10.940876446338917 -5 2 1
5432 26 4 0.06 -36.65843118369676 -27.072812998691212 -10.154965308860548 -5 2 1
7707 78 4 0.06 -37.24079766658996 -36.36780197271764 -10.325368325299365 1 1 1
7684 78 1 1 -39.52630510525362 -36.47246312373866 -9.170495826611193 1 1 1
7700 78 4 0.06 -40.976807195393484 -38.345096395767506 -10.138060480287706 1 1 1
7704 78 4 0.06 -39.174742514716115 -34.18114597602363 -10.341650515839158 1 1 1
7705 78 5 -0.43 -37.872156429137284 -37.004731624164286 -9.768129847604484 1 1 1
5431 26 4 0.06 -36.21461524124865 -25.374779486507485 -9.596210105484454 -5 2 1
5418 26 4 0.06 -39.265862840984745 -25.819286533074447 -5.299474381827198 -5 2 1
5419 26 4 0.06 -38.460326905021766 -26.36777946825581 -6.95921870978162 -5 2 1
5417 26 5 -0.43 -39.02175845427555 -25.521898265483134 -6.362580993649606 -5 2 1
5420 26 4 0.06 -39.99772321347173 -25.363325343250082 -6.792652796767273 -5 2 1
5416 26 4 0.06 -38.466967343767216 -23.77980899917491 -8.931458032286775 -5 2 1
5415 26 4 0.06 -38.65692152494619 -22.216996389055833 -8.260810384365298 -5 2 1
5414 26 4 0.06 -37.08263679251661 -22.987788097455407 -8.450368649163927 -5 2 1
5413 26 5 -0.43 -38.031868886529914 -23.109759172729504 -8.249967389746041 -5 2 1
5410 26 4 0.06 -37.71876856391203 -22.058483996655095 -4.9740294220229595 -5 2 1
5409 26 5 -0.43 -38.29095013398801 -22.92538143111675 -5.090982627322671 -5 2 1
5396 26 1 1 -37.94691272862692 -23.99818761955472 -6.54807105262008 -5 2 1
5411 26 4 0.06 -38.15574895421685 -23.389308310102564 -4.1599097295521705 -5 2 1
5412 26 4 0.06 -39.28068018919293 -22.625205776039063 -5.197485378012223 -5 2 1
1449 2 7 0 -16 -16 0 0 0 0
7713 78 5 -0.43 -38.61742027233099 -37.18906080099405 -3.4021160529146233 1 1 1
7714 78 4 0.06 -38.154167472717376 -36.170406467895084 -3.2829799252844025 1 1 1
7716 78 4 0.06 -38.21323779077939 -37.8514644443238 -2.6434564697345047 1 1 1
5908 37 4 0.06 -27.021078658889056 -36.64801165426718 -6.87067577159874 3 1 0
5899 37 4 0.06 -23.92756191942107 -36.844126070615204 -4.154255153567814 3 1 0
7706 78 4 0.06 -37.28105085394846 -37.58673730899746 -8.990303989853365 1 1 1
5898 37 4 0.06 -25.437741869843332 -37.594544606114276 -3.414152534808928 3 1 0
5897 37 5 -0.43 -24.385855581324556 -37.78773525023995 -3.738588711142563 3 1 0
7081 64 5 -0.43 -40.67719768564598 -30.238056684274362 -5.77486115395831 -7 4 0
5880 37 1 1 -24.333850783083694 -39.1090665937861 -4.972942858939898 3 1 0
5914 37 4 0.06 -26.31551204199789 -38.86757834685192 -10.20350160333484 3 1 0
5879 37 1 1 -27.92524056420471 -38.29043056299446 -8.551245218639488 3 1 0
5913 37 5 -0.43 -26.371952914842552 -37.964336010146305 -9.60050143574077 3 1 0
5875 37 3 -0.5 -27.492877733324992 -39.67387680626669 -7.8186929046366815 3 1 0
5915 37 4 0.06 -25.419044388242057 -37.558311183648115 -9.165082615031734 3 1 0
7702 78 4 0.06 -39.00610655776906 -34.1501590541792 -8.495728392595447 1 1 1
5894 37 4 0.06 -22.479546475145927 -39.3374622593095 -6.780375221085721 3 1 0
5893 37 5 -0.43 -23.27367540994525 -38.60551413091302 -6.547236982149697 3 1 0
5874 37 3 -0.5 -25.784445545714334 -39.407626036552365 -5.696328134442055 3 1 0
5873 37 2 0.85 -26.744517503186994 -40.462878115191316 -6.577178052078858 3 1 0
5895 37 4 0.06 -22.773838506834192 -37.635758405070355 -6.268198819030421 3 1 0
5896 37 4 0.06 -23.994805547243885 -38.34987231116743 -7.3707117021541135 3 1 0
7677 78 2 0.85 -40.64084770305912 -36.031657233156416 -6.543773140216613 1 1 1
7927 83 4 0.06 -18.44995627291119 -34.83295824280624 -3.01362632828641 -7 3 0
7928 83 4 0.06 -18.67094414890509 -35.902317481007266 -4.24365543819384 -7 3 0
7925 83 5 -0.43 -19.245371294767804 -35.18016865344599 -3.6381741627995208 -7 3 0
7088 64 4 0.06 -39.722142130047814 -28.05097014132866 -3.830713958589206 -7 4 0
5421 26 5 -0.43 -35.08285931296653 -28.863284550457305 -8.223551862950877 -5 2 1
5422 26 4 0.06 -34.97527370237248 -29.688972101863893 -8.944558752715462 -5 2 1
5423 26 4 0.06 -36.152653893475886 -28.75329926402805 -7.976609185944376 -5 2 1
7086 64 4 0.06 -39.18082968992404 -29.431722040760732 -2.799705453896899 -7 4 0
7708 78 4 0.06 -38.25715703117201 -37.77834788986254 -10.44727701155658 1 1 1
5395 26 1 1 -34.54757817393126 -27.178589610001918 -8.952758197533228 -5 2 1
7681 78 6 -0.1 -40.02750598480941 -34.78577077579667 -6.454982841666382 1 1 1
5424 26 4 0.06 -34.67495410287334 -29.114824601315114 -7.208061008210308 -5 2 1
7085 64 5 -0.43 -40.048211004622104 -28.79457289847778 -3.2145441341655783 -7 4 0
5426 26 4 0.06 -32.34742969294205 -26.049646608846306 -9.163823739850589 -5 2 1
5428 26 4 0.06 -32.30414641165674 -27.769718354831838 -8.583087329166958 -5 2 1
5425 26 5 -0.43 -32.734429244151436 -27.11136166275898 -9.325358096010527 -5 2 1
5427 26 4 0.06 -32.519522023962935 -27.67950035054642 -10.293377811690824 -5 2 1
5391 26 3 -0.5 -34.756219520859304 -26.232271268552044 -7.601456255875586 -5 2 1
7920 83 4 0.06 -22.33277942792952 -33.00460938848153 -5.350434200025621 -7 3 0
7918 83 4 0.06 -22.19493434844211 -33.26925391225516 -3.5878566441518935 -7 3 0
7919 83 4 0.06 -22.55183984311506 -34.675091686977865 -4.625690563423801 -7 3 0
7917 83 5 -0.43 -21.932355210053714 -33.72842616800921 -4.600658443547735 -7 3 0
7929 83 5 -0.43 -22.998717704065182 -28.965019612840514 -5.345208260747392 -7 3 0
7940 83 4 0.06 -24.20032883782302 -30.960095789308994 -3.570857250588805 -7 3 0
7930 83 4 0.06 -23.528282794816274 -29.84619189122659 -5.571365800042732 -7 3 0
7938 83 4 0.06 -24.383514892351478 -29.98405846915505 -2.32661727921349 -7 3 0
7937 83 5 -0.43 -23.63080427925289 -30.474281931455714 -2.883504506892186 -7 3 0
7899 83 3 -0.5 -21.217283387395316 -30.363954486800935 -4.197280235834758 -7 3 0
7939 83 4 0.06 -23.207266698269972 -31.41193663379605 -2.3628160879014093 -7 3 0
7903 83 1 1 -22.443759822154938 -29.359534552300577 -3.751389356655127 -7 3 0
7932 83 4 0.06 -23.710800985853385 -28.070668055447623 -5.410488555844074 -7 3 0
7087 64 4 0.06 -40.60306608612634 -28.216886471463436 -2.343180043003693 -7 4 0
7082 64 4 0.06 -39.90249261216269 -30.980485760993165 -5.744441135306665 -7 4 0
5902 37 4 0.06 -25.086698100034372 -40.78171949198481 -3.2879864350614643 3 1 0
7909 83 5 -0.43 -16.624488028215588 -31.375374341018123 -6.204840364368568 -7 3 0
7915 83 4 0.06 -15.976345999850302 -27.70737968433259 -4.731760654326296 -7 3 0
7913 83 5 -0.43 -16.036536618787338 -28.52748986728691 -5.481314363420619 -7 3 0
7902 83 1 1 -16.898537200952365 -30.121115707657964 -4.865663157493564 -7 3 0
7679 78 3 -0.5 -40.574625220533676 -36.94912126917853 -5.175240755145465 1 1 1
7916 83 4 0.06 -16.720489043270362 -28.213840170070718 -6.362427538492129 -7 3 0
7921 83 5 -0.43 -19.53005750579683 -34.21126421429475 -6.576900154716672 -7 3 0
7924 83 4 0.06 -20.298306621506338 -33.89606016810364 -7.311344362098765 -7 3 0
7922 83 4 0.06 -19.285328709295992 -35.21258913512061 -6.826626236291256 -7 3 0
7923 83 4 0.06 -18.729230683003795 -33.5117199319789 -6.790324222382593 -7 3 0
7904 83 1 1 -20.06765855455682 -33.99343120177647 -4.8455743308317105 -7 3 0
7900 83 3 -0.5 -18.545757590033467 -30.013347045131034 -4.65884083540632 -7 3 0
7901 83 6 -0.1 -19.43873463746102 -30.675908964508963 -2.447937724226934 -7 3 0
7898 83 3 -0.5 -19.51818201152546 -32.57673318842075 -4.270116257358825 -7 3 0
7897 83 2 0.85 -19.661922021455755 -30.95539209978489 -3.882803332539132 -7 3 0
7926 83 4 0.06 -20.146434912335007 -35.679781859477025 -3.129971117961203 -7 3 0
5393 26 6 -0.1 -34.833812178267785 -23.631153478454024 -7.643512716039895 -5 2 1
5402 26 4 0.06 -32.095567877379395 -23.856620836449636 -7.623902397282699 -5 2 1
5390 26 3 -0.5 -36.45492059257455 -24.672167577729393 -6.275219954694066 -5 2 1
5392 26 3 -0.5 -33.697725274952326 -24.519639585112444 -5.7289700356230115 -5 2 1
5401 26 5 -0.43 -31.729205650635986 -23.15162122432563 -6.9811145988990075 -5 2 1
5403 26 4 0.06 -30.70258272700424 -22.851988421575207 -6.903823365696907 -5 2 1
5404 26 4 0.06 -32.1691140974201 -22.263479772271147 -7.153014671324627 -5 2 1
5389 26 2 0.85 -34.94034230506385 -24.866719104054116 -6.818834952510183 -5 2 1
5394 26 1 1 -32.39317400595425 -23.6385665842332 -5.35319214472694 -5 2 1
5408 26 4 0.06 -33.80936782550129 -21.770261558653683 -4.985978661217621 -5 2 1
5398 26 4 0.06 -31.284879510715317 -24.73600471814613 -3.363743460424546 -5 2 1
5400 26 4 0.06 -32.122322059196435 -25.78441259584578 -4.395626173446082 -5 2 1
5405 26 5 -0.43 -33.23717671789264 -22.36770792005165 -4.282578777707816 -5 2 1
5406 26 4 0.06 -32.56804280601616 -21.81342063434605 -3.699010311488697 -5 2 1
5407 26 4 0.06 -33.92277470881809 -22.784744078131727 -3.5441219019187735 -5 2 1
5397 26 5 -0.43 -31.34991561327418 -24.956300886611626 -4.431649049278919 -5 2 1
5399 26 4 0.06 -30.42531401623844 -25.2193832948123 -4.84311603461864 -5 2 1
7931 83 4 0.06 -22.02790190604905 -28.781633667945442 -5.952504274947746 -7 3 0
7935 83 4 0.06 -21.119520509061974 -27.36767895263603 -3.8255562115318025 -7 3 0
7934 83 4 0.06 -22.20837242652143 -27.151736727045808 -2.5486362756771115 -7 3 0
7933 83 5 -0.43 -21.574424975239356 -27.914339648899386 -3.0156278763215805 -7 3 0
7936 83 4 0.06 -20.835889787494345 -28.225446281193026 -2.311181051973097 -7 3 0
7906 83 4 0.06 -16.807944718515653 -30.286414033344933 -2.315632496463098 -7 3 0
7912 83 4 0.06 -17.14705316081834 -31.14984836745687 -7.154315717534716 -7 3 0
7905 83 5 -0.43 -16.334302125972474 -30.736658277907953 -3.206962771288117 -7 3 0
7908 83 4 0.06 -16.2610102498717 -31.803106216344723 -3.0969579564888483 -7 3 0
5901 37 5 -0.43 -24.181648918876206 -40.748582121999796 -3.980298355518841 3 1 0
1107 2 7 0 -22 -16 2 0 0 0
1221 2 7 0 -20 -16 0 0 0 0
45 2 7 0 -40 -40 0 0 0 0
46 2 7 0 -40 -40 4 0 0 0
48 2 7 0 -40 -38 2 0 0 0
51 2 7 0 -40 -36 0 0 0 0
52 2 7 0 -40 -36 4 0 0 0
159 2 7 0 -38 -40 2 0 0 0
162 2 7 0 -38 -38 0 0 0 0
163 2 7 0 -38 -38 4 0 0 0
165 2 7 0 -38 -36 2 0 0 0
273 2 7 0 -36 -40 0 0 0 0
274 2 7 0 -36 -40 4 0 0 0
276 2 7 0 -36 -38 2 0 0 0
279 2 7 0 -36 -36 0 0 0 0
280 2 7 0 -36 -36 4 0 0 0
387 2 7 0 -34 -40 2 0 0 0
390 2 7 0 -34 -38 0 0 0 0
391 2 7 0 -34 -38 4 0 0 0
393 2 7 0 -34 -36 2 0 0 0
501 2 7 0 -32 -40 0 0 0 0
502 2 7 0 -32 -40 4 0 0 0
504 2 7 0 -32 -38 2 0 0 0
507 2 7 0 -32 -36 0 0 0 0
508 2 7 0 -32 -36 4 0 0 0
615 2 7 0 -30 -40 2 0 0 0
618 2 7 0 -30 -38 0 0 0 0
619 2 7 0 -30 -38 4 0 0 0
621 2 7 0 -30 -36 2 0 0 0
729 2 7 0 -28 -40 0 0 0 0
730 2 7 0 -28 -40 4 0 0 0
732 2 7 0 -28 -38 2 0 0 0
735 2 7 0 -28 -36 0 0 0 0
736 2 7 0 -28 -36 4 0 0 0
843 2 7 0 -26 -40 2 0 0 0
846 2 7 0 -26 -38 0 0 0 0
847 2 7 0 -26 -38 4 0 0 0
849 2 7 0 -26 -36 2 0 0 0
957 2 7 0 -24 -40 0 0 0 0
958 2 7 0 -24 -40 4 0 0 0
960 2 7 0 -24 -38 2 0 0 0
963 2 7 0 -24 -36 0 0 0 0
964 2 7 0 -24 -36 4 0 0 0
1071 2 7 0 -22 -40 2 0 0 0
1074 2 7 0 -22 -38 0 0 0 0
1075 2 7 0 -22 -38 4 0 0 0
1077 2 7 0 -22 -36 2 0 0 0
1185 2 7 0 -20 -40 0 0 0 0
1186 2 7 0 -20 -40 4 0 0 0
1188 2 7 0 -20 -38 2 0 0 0
1191 2 7 0 -20 -36 0 0 0 0
1192 2 7 0 -20 -36 4 0 0 0
1299 2 7 0 -18 -40 2 0 0 0
1302 2 7 0 -18 -38 0 0 0 0
1303 2 7 0 -18 -38 4 0 0 0
1305 2 7 0 -18 -36 2 0 0 0
1413 2 7 0 -16 -40 0 0 0 0
1414 2 7 0 -16 -40 4 0 0 0
1416 2 7 0 -16 -38 2 0 0 0
1419 2 7 0 -16 -36 0 0 0 0
1420 2 7 0 -16 -36 4 0 0 0
54 2 7 0 -40 -34 2 0 0 0
57 2 7 0 -40 -32 0 0 0 0
58 2 7 0 -40 -32 4 0 0 0
60 2 7 0 -40 -30 2 0 0 0
168 2 7 0 -38 -34 0 0 0 0
169 2 7 0 -38 -34 4 0 0 0
171 2 7 0 -38 -32 2 0 0 0
174 2 7 0 -38 -30 0 0 0 0
175 2 7 0 -38 -30 4 0 0 0
282 2 7 0 -36 -34 2 0 0 0
285 2 7 0 -36 -32 0 0 0 0
286 2 7 0 -36 -32 4 0 0 0
288 2 7 0 -36 -30 2 0 0 0
396 2 7 0 -34 -34 0 0 0 0
397 2 7 0 -34 -34 4 0 0 0
399 2 7 0 -34 -32 2 0 0 0
402 2 7 0 -34 -30 0 0 0 0
403 2 7 0 -34 -30 4 0 0 0
510 2 7 0 -32 -34 2 0 0 0
513 2 7 0 -32 -32 0 0 0 0
514 2 7 0 -32 -32 4 0 0 0
516 2 7 0 -32 -30 2 0 0 0
624 2 7 0 -30 -34 0 0 0 0
625 2 7 0 -30 -34 4 0 0 0
627 2 7 0 -30 -32 2 0 0 0
630 2 7 0 -30 -30 0 0 0 0
631 2 7 0 -30 -30 4 0 0 0
738 2 7 0 -28 -34 2 0 0 0
741 2 7 0 -28 -32 0 0 0 0
742 2 7 0 -28 -32 4 0 0 0
744 2 7 0 -28 -30 2 0 0 0
852 2 7 0 -26 -34 0 0 0 0
853 2 7 0 -26 -34 4 0 0 0
855 2 7 0 -26 -32 2 0 0 0
858 2 7 0 -26 -30 0 0 0 0
859 2 7 0 -26 -30 4 0 0 0
966 2 7 0 -24 -34 2 0 0 0
969 2 7 0 -24 -32 0 0 0 0
970 2 7 0 -24 -32 4 0 0 0
972 2 7 0 -24 -30 2 0 0 0
1080 2 7 0 -22 -34 0 0 0 0
1081 2 7 0 -22 -34 4 0 0 0
1083 2 7 0 -22 -32 2 0 0 0
1086 2 7 0 -22 -30 0 0 0 0
1087 2 7 0 -22 -30 4 0 0 0
1194 2 7 0 -20 -34 2 0 0 0
1197 2 7 0 -20 -32 0 0 0 0
1198 2 7 0 -20 -32 4 0 0 0
1200 2 7 0 -20 -30 2 0 0 0
1308 2 7 0 -18 -34 0 0 0 0
1309 2 7 0 -18 -34 4 0 0 0
1311 2 7 0 -18 -32 2 0 0 0
1314 2 7 0 -18 -30 0 0 0 0
1315 2 7 0 -18 -30 4 0 0 0
1422 2 7 0 -16 -34 2 0 0 0
1425 2 7 0 -16 -32 0 0 0 0
1426 2 7 0 -16 -32 4 0 0 0
1428 2 7 0 -16 -30 2 0 0 0
63 2 7 0 -40 -28 0 0 0 0
64 2 7 0 -40 -28 4 0 0 0
66 2 7 0 -40 -26 2 0 0 0
69 2 7 0 -40 -24 0 0 0 0
70 2 7 0 -40 -24 4 0 0 0
177 2 7 0 -38 -28 2 0 0 0
180 2 7 0 -38 -26 0 0 0 0
181 2 7 0 -38 -26 4 0 0 0
183 2 7 0 -38 -24 2 0 0 0
291 2 7 0 -36 -28 0 0 0 0
292 2 7 0 -36 -28 4 0 0 0
294 2 7 0 -36 -26 2 0 0 0
297 2 7 0 -36 -24 0 0 0 0
298 2 7 0 -36 -24 4 0 0 0
405 2 7 0 -34 -28 2 0 0 0
408 2 7 0 -34 -26 0 0 0 0
409 2 7 0 -34 -26 4 0 0 0
411 2 7 0 -34 -24 2 0 0 0
519 2 7 0 -32 -28 0 0 0 0
520 2 7 0 -32 -28 4 0 0 0
522 2 7 0 -32 -26 2 0 0 0
525 2 7 0 -32 -24 0 0 0 0
526 2 7 0 -32 -24 4 0 0 0
633 2 7 0 -30 -28 2 0 0 0
636 2 7 0 -30 -26 0 0 0 0
637 2 7 0 -30 -26 4 0 0 0
639 2 7 0 -30 -24 2 0 0 0
747 2 7 0 -28 -28 0 0 0 0
748 2 7 0 -28 -28 4 0 0 0
750 2 7 0 -28 -26 2 0 0 0
753 2 7 0 -28 -24 0 0 0 0
754 2 7 0 -28 -24 4 0 0 0
861 2 7 0 -26 -28 2 0 0 0
864 2 7 0 -26 -26 0 0 0 0
865 2 7 0 -26 -26 4 0 0 0
867 2 7 0 -26 -24 2 0 0 0
975 2 7 0 -24 -28 0 0 0 0
976 2 7 0 -24 -28 4 0 0 0
978 2 7 0 -24 -26 2 0 0 0
981 2 7 0 -24 -24 0 0 0 0
982 2 7 0 -24 -24 4 0 0 0
1089 2 7 0 -22 -28 2 0 0 0
1092 2 7 0 -22 -26 0 0 0 0
1093 2 7 0 -22 -26 4 0 0 0
1095 2 7 0 -22 -24 2 0 0 0
1203 2 7 0 -20 -28 0 0 0 0
1204 2 7 0 -20 -28 4 0 0 0
1206 2 7 0 -20 -26 2 0 0 0
1209 2 7 0 -20 -24 0 0 0 0
1210 2 7 0 -20 -24 4 0 0 0
1317 2 7 0 -18 -28 2 0 0 0
1320 2 7 0 -18 -26 0 0 0 0
1321 2 7 0 -18 -26 4 0 0 0
1323 2 7 0 -18 -24 2 0 0 0
1431 2 7 0 -16 -28 0 0 0 0
1432 2 7 0 -16 -28 4 0 0 0
1434 2 7 0 -16 -26 2 0 0 0
1437 2 7 0 -16 -24 0 0 0 0
1438 2 7 0 -16 -24 4 0 0 0
72 2 7 0 -40 -22 2 0 0 0
75 2 7 0 -40 -20 0 0 0 0
76 2 7 0 -40 -20 4 0 0 0
78 2 7 0 -40 -18 2 0 0 0
81 2 7 0 -40 -16 0 0 0 0
82 2 7 0 -40 -16 4 0 0 0
186 2 7 0 -38 -22 0 0 0 0
187 2 7 0 -38 -22 4 0 0 0
189 2 7 0 -38 -20 2 0 0 0
192 2 7 0 -38 -18 0 0 0 0
193 2 7 0 -38 -18 4 0 0 0
195 2 7 0 -38 -16 2 0 0 0
300 2 7 0 -36 -22 2 0 0 0
303 2 7 0 -36 -20 0 0 0 0
304 2 7 0 -36 -20 4 0 0 0
306 2 7 0 -36 -18 2 0 0 0
309 2 7 0 -36 -16 0 0 0 0
310 2 7 0 -36 -16 4 0 0 0
420 2 7 0 -34 -18 0 0 0 0
415 2 7 0 -34 -22 4 0 0 0
651 2 7 0 -30 -16 2 0 0 0
421 2 7 0 -34 -18 4 0 0 0
423 2 7 0 -34 -16 2 0 0 0
642 2 7 0 -30 -22 0 0 0 0
528 2 7 0 -32 -22 2 0 0 0
531 2 7 0 -32 -20 0 0 0 0
643 2 7 0 -30 -22 4 0 0 0
534 2 7 0 -32 -18 2 0 0 0
532 2 7 0 -32 -20 4 0 0 0
538 2 7 0 -32 -16 4 0 0 0
417 2 7 0 -34 -20 2 0 0 0
537 2 7 0 -32 -16 0 0 0 0
645 2 7 0 -30 -20 2 0 0 0
414 2 7 0 -34 -22 0 0 0 0
649 2 7 0 -30 -18 4 0 0 0
648 2 7 0 -30 -18 0 0 0 0
873 2 7 0 -26 -20 2 0 0 0
990 2 7 0 -24 -18 2 0 0 0
879 2 7 0 -26 -16 2 0 0 0
876 2 7 0 -26 -18 0 0 0 0
988 2 7 0 -24 -20 4 0 0 0
766 2 7 0 -28 -16 4 0 0 0
871 2 7 0 -26 -22 4 0 0 0
984 2 7 0 -24 -22 2 0 0 0
987 2 7 0 -24 -20 0 0 0 0
877 2 7 0 -26 -18 4 0 0 0
756 2 7 0 -28 -22 2 0 0 0
994 2 7 0 -24 -16 4 0 0 0
765 2 7 0 -28 -16 0 0 0 0
760 2 7 0 -28 -20 4 0 0 0
993 2 7 0 -24 -16 0 0 0 0
870 2 7 0 -26 -22 0 0 0 0
762 2 7 0 -28 -18 2 0 0 0
759 2 7 0 -28 -20 0 0 0 0
1335 2 7 0 -18 -16 2 0 0 0
1443 2 7 0 -16 -20 0 0 0 0
1218 2 7 0 -20 -18 2 0 0 0
1444 2 7 0 -16 -20 4 0 0 0
1212 2 7 0 -20 -22 2 0 0 0
1329 2 7 0 -18 -20 2 0 0 0
1333 2 7 0 -18 -18 4 0 0 0
1327 2 7 0 -18 -22 4 0 0 0
1446 2 7 0 -16 -18 2 0 0 0
1450 2 7 0 -16 -16 4 0 0 0
1101 2 7 0 -22 -20 2 0 0 0
1440 2 7 0 -16 -22 2 0 0 0
1216 2 7 0 -20 -20 4 0 0 0
1098 2 7 0 -22 -22 0 0 0 0
1099 2 7 0 -22 -22 4 0 0 0
1332 2 7 0 -18 -18 0 0 0 0
1105 2 7 0 -22 -18 4 0 0 0
1222 2 7 0 -20 -16 4 0 0 0
1326 2 7 0 -18 -22 0 0 0 0
1215 2 7 0 -20 -20 0 0 0 0
1104 2 7 0 -22 -18 0 0 0 0
7701 78 5 -0.43 -39.56857311384485 -34.599561919269725 -9.389939674670996 1 1 1
7703 78 4 0.06 -40.55233073549496 -34.155291957082035 -9.212266416821983 1 1 1
5912 37 4 0.06 -30.275282620525733 -39.16135951312082 -8.477915981236666 3 1 0
5900 37 4 0.06 -23.96183408998719 -38.27286640282101 -2.8595256781290286 3 1 0
7910 83 4 0.06 -16.957955131842443 -32.374665324015474 -5.808182535891749 -7 3 0
7083 64 4 0.06 -40.34743332645478 -29.26539087355769 -6.211937875359814 -7 4 0
7683 78 1 1 -40.43647195401407 -37.01033084356575 -3.5865001589062633 1 1 1
5890 37 4 0.06 -29.84641680528202 -40.94593125673572 -2.9370902187549714 3 1 0
5876 37 3 -0.5 -27.97004909377852 -40.82192372462058 -5.496183465504714 3 1 0
5903 37 4 0.06 -23.377226864474828 -40.99301659202594 -3.265990337103602 3 1 0
47 2 7 0 -40 -40 8 0 0 0
49 2 7 0 -40 -38 6 0 0 0
50 2 7 0 -40 -38 10 0 0 0
53 2 7 0 -40 -36 8 0 0 0
160 2 7 0 -38 -40 6 0 0 0
161 2 7 0 -38 -40 10 0 0 0
164 2 7 0 -38 -38 8 0 0 0
166 2 7 0 -38 -36 6 0 0 0
167 2 7 0 -38 -36 10 0 0 0
275 2 7 0 -36 -40 8 0 0 0
277 2 7 0 -36 -38 6 0 0 0
278 2 7 0 -36 -38 10 0 0 0
281 2 7 0 -36 -36 8 0 0 0
388 2 7 0 -34 -40 6 0 0 0
389 2 7 0 -34 -40 10 0 0 0
392 2 7 0 -34 -38 8 0 0 0
394 2 7 0 -34 -36 6 0 0 0
395 2 7 0 -34 -36 10 0 0 0
503 2 7 0 -32 -40 8 0 0 0
505 2 7 0 -32 -38 6 0 0 0
506 2 7 0 -32 -38 10 0 0 0
509 2 7 0 -32 -36 8 0 0 0
616 2 7 0 -30 -40 6 0 0 0
617 2 7 0 -30 -40 10 0 0 0
620 2 7 0 -30 -38 8 0 0 0
622 2 7 0 -30 -36 6 0 0 0
623 2 7 0 -30 -36 10 0 0 0
731 2 7 0 -28 -40 8 0 0 0
733 2 7 0 -28 -38 6 0 0 0
734 2 7 0 -28 -38 10 0 0 0
737 2 7 0 -28 -36 8 0 0 0
844 2 7 0 -26 -40 6 0 0 0
845 2 7 0 -26 -40 10 0 0 0
848 2 7 0 -26 -38 8 0 0 0
850 2 7 0 -26 -36 6 0 0 0
851 2 7 0 -26 -36 10 0 0 0
959 2 7 0 -24 -40 8 0 0 0
961 2 7 0 -24 -38 6 0 0 0
962 2 7 0 -24 -38 10 0 0 0
965 2 7 0 -24 -36 8 0 0 0
1072 2 7 0 -22 -40 6 0 0 0
1073 2 7 0 -22 -40 10 0 0 0
1076 2 7 0 -22 -38 8 0 0 0
1078 2 7 0 -22 -36 6 0 0 0
1079 2 7 0 -22 -36 10 0 0 0
1187 2 7 0 -20 -40 8 0 0 0
1189 2 7 0 -20 -38 6 0 0 0
1190 2 7 0 -20 -38 10 0 0 0
1193 2 7 0 -20 -36 8 0 0 0
1300 2 7 0 -18 -40 6 0 0 0
1301 2 7 0 -18 -40 10 0 0 0
1304 2 7 0 -18 -38 8 0 0 0
1306 2 7 0 -18 -36 6 0 0 0
1307 2 7 0 -18 -36 10 0 0 0
1415 2 7 0 -16 -40 8 0 0 0
1417 2 7 0 -16 -38 6 0 0 0
1418 2 7 0 -16 -38 10 0 0 0
1421 2 7 0 -16 -36 8 0 0 0
55 2 7 0 -40 -34 6 0 0 0
56 2 7 0 -40 -34 10 0 0 0
59 2 7 0 -40 -32 8 0 0 0
61 2 7 0 -40 -30 6 0 0 0
62 2 7 0 -40 -30 10 0 0 0
170 2 7 0 -38 -34 8 0 0 0
172 2 7 0 -38 -32 6 0 0 0
173 2 7 0 -38 -32 10 0 0 0
176 2 7 0 -38 -30 8 0 0 0
283 2 7 0 -36 -34 6 0 0 0
284 2 7 0 -36 -34 10 0 0 0
287 2 7 0 -36 -32 8 0 0 0
289 2 7 0 -36 -30 6 0 0 0
290 2 7 0 -36 -30 10 0 0 0
398 2 7 0 -34 -34 8 0 0 0
400 2 7 0 -34 -32 6 0 0 0
401 2 7 0 -34 -32 10 0 0 0
404 2 7 0 -34 -30 8 0 0 0
511 2 7 0 -32 -34 6 0 0 0
512 2 7 0 -32 -34 10 0 0 0
515 2 7 0 -32 -32 8 0 0 0
517 2 7 0 -32 -30 6 0 0 0
518 2 7 0 -32 -30 10 0 0 0
626 2 7 0 -30 -34 8 0 0 0
628 2 7 0 -30 -32 6 0 0 0
629 2 7 0 -30 -32 10 0 0 0
632 2 7 0 -30 -30 8 0 0 0
739 2 7 0 -28 -34 6 0 0 0
740 2 7 0 -28 -34 10 0 0 0
743 2 7 0 -28 -32 8 0 0 0
745 2 7 0 -28 -30 6 0 0 0
746 2 7 0 -28 -30 10 0 0 0
854 2 7 0 -26 -34 8 0 0 0
856 2 7 0 -26 -32 6 0 0 0
857 2 7 0 -26 -32 10 0 0 0
860 2 7 0 -26 -30 8 0 0 0
967 2 7 0 -24 -34 6 0 0 0
968 2 7 0 -24 -34 10 0 0 0
971 2 7 0 -24 -32 8 0 0 0
973 2 7 0 -24 -30 6 0 0 0
974 2 7 0 -24 -30 10 0 0 0
1082 2 7 0 -22 -34 8 0 0 0
1084 2 7 0 -22 -32 6 0 0 0
1085 2 7 0 -22 -32 10 0 0 0
1088 2 7 0 -22 -30 8 0 0 0
1195 2 7 0 -20 -34 6 0 0 0
1196 2 7 0 -20 -34 10 0 0 0
1199 2 7 0 -20 -32 8 0 0 0
1201 2 7 0 -20 -30 6 0 0 0
1202 2 7 0 -20 -30 10 0 0 0
1310 2 7 0 -18 -34 8 0 0 0
1312 2 7 0 -18 -32 6 0 0 0
1313 2 7 0 -18 -32 10 0 0 0
1316 2 7 0 -18 -30 8 0 0 0
1423 2 7 0 -16 -34 6 0 0 0
1424 2 7 0 -16 -34 10 0 0 0
1427 2 7 0 -16 -32 8 0 0 0
1429 2 7 0 -16 -30 6 0 0 0
1430 2 7 0 -16 -30 10 0 0 0
65 2 7 0 -40 -28 8 0 0 0
67 2 7 0 -40 -26 6 0 0 0
68 2 7 0 -40 -26 10 0 0 0
71 2 7 0 -40 -24 8 0 0 0
178 2 7 0 -38 -28 6 0 0 0
179 2 7 0 -38 -28 10 0 0 0
182 2 7 0 -38 -26 8 0 0 0
184 2 7 0 -38 -24 6 0 0 0
185 2 7 0 -38 -24 10 0 0 0
293 2 7 0 -36 -28 8 0 0 0
295 2 7 0 -36 -26 6 0 0 0
296 2 7 0 -36 -26 10 0 0 0
299 2 7 0 -36 -24 8 0 0 0
406 2 7 0 -34 -28 6 0 0 0
407 2 7 0 -34 -28 10 0 0 0
410 2 7 0 -34 -26 8 0 0 0
412 2 7 0 -34 -24 6 0 0 0
413 2 7 0 -34 -24 10 0 0 0
521 2 7 0 -32 -28 8 0 0 0
523 2 7 0 -32 -26 6 0 0 0
524 2 7 0 -32 -26 10 0 0 0
527 2 7 0 -32 -24 8 0 0 0
634 2 7 0 -30 -28 6 0 0 0
635 2 7 0 -30 -28 10 0 0 0
638 2 7 0 -30 -26 8 0 0 0
640 2 7 0 -30 -24 6 0 0 0
641 2 7 0 -30 -24 10 0 0 0
749 2 7 0 -28 -28 8 0 0 0
751 2 7 0 -28 -26 6 0 0 0
752 2 7 0 -28 -26 10 0 0 0
755 2 7 0 -28 -24 8 0 0 0
862 2 7 0 -26 -28 6 0 0 0
863 2 7 0 -26 -28 10 0 0 0
866 2 7 0 -26 -26 8 0 0 0
868 2 7 0 -26 -24 6 0 0 0
869 2 7 0 -26 -24 10 0 0 0
977 2 7 0 -24 -28 8 0 0 0
979 2 7 0 -24 -26 6 0 0 0
980 2 7 0 -24 -26 10 0 0 0
983 2 7 0 -24 -24 8 0 0 0
1090 2 7 0 -22 -28 6 0 0 0
1091 2 7 0 -22 -28 10 0 0 0
1094 2 7 0 -22 -26 8 0 0 0
1096 2 7 0 -22 -24 6 0 0 0
1097 2 7 0 -22 -24 10 0 0 0
1205 2 7 0 -20 -28 8 0 0 0
1207 2 7 0 -20 -26 6 0 0 0
1208 2 7 0 -20 -26 10 0 0 0
1211 2 7 0 -20 -24 8 0 0 0
1318 2 7 0 -18 -28 6 0 0 0
1319 2 7 0 -18 -28 10 0 0 0
1322 2 7 0 -18 -26 8 0 0 0
1324 2 7 0 -18 -24 6 0 0 0
1325 2 7 0 -18 -24 10 0 0 0
1433 2 7 0 -16 -28 8 0 0 0
1435 2 7 0 -16 -26 6 0 0 0
1436 2 7 0 -16 -26 10 0 0 0
1439 2 7 0 -16 -24 8 0 0 0
73 2 7 0 -40 -22 6 0 0 0
74 2 7 0 -40 -22 10 0 0 0
77 2 7 0 -40 -20 8 0 0 0
79 2 7 0 -40 -18 6 0 0 0
80 2 7 0 -40 -18 10 0 0 0
83 2 7 0 -40 -16 8 0 0 0
188 2 7 0 -38 -22 8 0 0 0
190 2 7 0 -38 -20 6 0 0 0
191 2 7 0 -38 -20 10 0 0 0
194 2 7 0 -38 -18 8 0 0 0
196 2 7 0 -38 -16 6 0 0 0
197 2 7 0 -38 -16 10 0 0 0
301 2 7 0 -36 -22 6 0 0 0
302 2 7 0 -36 -22 10 0 0 0
305 2 7 0 -36 -20 8 0 0 0
307 2 7 0 -36 -18 6 0 0 0
308 2 7 0 -36 -18 10 0 0 0
311 2 7 0 -36 -16 8 0 0 0
416 2 7 0 -34 -22 8 0 0 0
418 2 7 0 -34 -20 6 0 0 0
419 2 7 0 -34 -20 10 0 0 0
422 2 7 0 -34 -18 8 0 0 0
424 2 7 0 -34 -16 6 0 0 0
425 2 7 0 -34 -16 10 0 0 0
529 2 7 0 -32 -22 6 0 0 0
530 2 7 0 -32 -22 10 0 0 0
533 2 7 0 -32 -20 8 0 0 0
535 2 7 0 -32 -18 6 0 0 0
536 2 7 0 -32 -18 10 0 0 0
539 2 7 0 -32 -16 8 0 0 0
644 2 7 0 -30 -22 8 0 0 0
646 2 7 0 -30 -20 6 0 0 0
647 2 7 0 -30 -20 10 0 0 0
650 2 7 0 -30 -18 8 0 0 0
652 2 7 0 -30 -16 6 0 0 0
653 2 7 0 -30 -16 10 0 0 0
757 2 7 0 -28 -22 6 0 0 0
758 2 7 0 -28 -22 10 0 0 0
761 2 7 0 -28 -20 8 0 0 0
763 2 7 0 -28 -18 6 0 0 0
764 2 7 0 -28 -18 10 0 0 0
767 2 7 0 -28 -16 8 0 0 0
872 2 7 0 -26 -22 8 0 0 0
874 2 7 0 -26 -20 6 0 0 0
875 2 7 0 -26 -20 10 0 0 0
878 2 7 0 -26 -18 8 0 0 0
880 2 7 0 -26 -16 6 0 0 0
881 2 7 0 -26 -16 10 0 0 0
985 2 7 0 -24 -22 6 0 0 0
986 2 7 0 -24 -22 10 0 0 0
989 2 7 0 -24 -20 8 0 0 0
991 2 7 0 -24 -18 6 0 0 0
992 2 7 0 -24 -18 10 0 0 0
995 2 7 0 -24 -16 8 0 0 0
1100 2 7 0 -22 -22 8 0 0 0
1102 2 7 0 -22 -20 6 0 0 0
1103 2 7 0 -22 -20 10 0 0 0
1106 2 7 0 -22 -18 8 0 0 0
1108 2 7 0 -22 -16 6 0 0 0
1109 2 7 0 -22 -16 10 0 0 0
1213 2 7 0 -20 -22 6 0 0 0
1214 2 7 0 -20 -22 10 0 0 0
1217 2 7 0 -20 -20 8 0 0 0
1219 2 7 0 -20 -18 6 0 0 0
1220 2 7 0 -20 -18 10 0 0 0
1223 2 7 0 -20 -16 8 0 0 0
1328 2 7 0 -18 -22 8 0 0 0
1330 2 7 0 -18 -20 6 0 0 0
1331 2 7 0 -18 -20 10 0 0 0
1334 2 7 0 -18 -18 8 0 0 0
1336 2 7 0 -18 -16 6 0 0 0
1337 2 7 0 -18 -16 10 0 0 0
1441 2 7 0 -16 -22 6 0 0 0
1442 2 7 0 -16 -22 10 0 0 0
1445 2 7 0 -16 -20 8 0 0 0
1447 2 7 0 -16 -18 6 0 0 0
1448 2 7 0 -16 -18 10 0 0 0
1451 2 7 0 -16 -16 8 0 0 0
7972 84 4 0.06 -36.302671245849346 -36.235315078750475 13.008072467564086 1 -2 -1
42 1 4 0.06 -31.18918929943278 -26.9642802998491 20.100442933511072 2 -1 0
7975 84 4 0.06 -36.7861154146087 -37.992321541736594 18.85442502687739 1 -2 -1
8478 96 4 0.06 -38.434077152454506 -20.804389531357387 16.15359350093616 8 4 -1
7969 84 5 -0.43 -36.21711303810389 -36.9499007257947 13.804419402933558 1 -2 -1
5272 23 4 0.06 -26.637397769869978 -39.13722244617765 13.17644787887258 1 -3 0
7967 84 4 0.06 -34.29041543664717 -39.3389287197348 12.341354413704066 1 -2 -1
7965 84 5 -0.43 -33.67231542785256 -38.70135799556716 13.023213645123134 1 -2 -1
7968 84 4 0.06 -33.22018185447739 -39.31494859264781 13.79473485694577 1 -2 -1
7966 84 4 0.06 -32.9403529280625 -38.27299965819737 12.324198348470524 1 -2 -1
7948 84 1 1 -34.392515077007246 -37.31477748873093 14.024005199619134 1 -2 -1
7942 84 3 -0.5 -34.19629113472531 -37.74691675533364 15.565220829402957 1 -2 -1
7941 84 2 0.85 -33.95248654469483 -38.895049293318245 16.721629186493345 1 -2 -1
7945 84 6 -0.1 -34.69583230125484 -40.090539502712176 16.45664726174834 1 -2 -1
7943 84 3 -0.5 -34.467788284093835 -38.22109185036911 18.05240664808059 1 -2 -1
8479 96 4 0.06 -38.63450356431023 -22.428153596997358 16.843692094492294 8 4 -1
7971 84 4 0.06 -36.92729305674811 -37.873701017016884 13.641078281134252 1 -2 -1
7961 84 5 -0.43 -33.19848352819711 -35.824713811914236 13.784351170284499 1 -2 -1
7962 84 4 0.06 -33.57133391362435 -35.127891936108426 13.032405160933727 1 -2 -1
7963 84 4 0.06 -32.2269795455597 -36.18831486304486 13.60829322007063 1 -2 -1
7970 84 4 0.06 -36.532256364204464 -36.41804386164588 14.773039906569249 1 -2 -1
7964 84 4 0.06 -32.9053458847488 -35.272059984759515 14.793370377412527 1 -2 -1
5855 36 4 0.06 -25.89301994879751 -31.354483649665287 15.170565538847534 -1 1 -1
7944 84 3 -0.5 -32.33462262860029 -38.97313108694668 16.99979056333196 1 -2 -1
7946 84 1 1 -30.852483235921124 -39.71619107403682 16.81779940633233 1 -2 -1
7951 84 4 0.06 -30.158825067137254 -38.56432105472121 14.963089339685526 1 -2 -1
5273 23 5 -0.43 -24.987871335759998 -39.32822682541643 16.235097215456797 1 -3 0
5851 36 4 0.06 -28.535843927017897 -33.06784851874085 16.33491145442591 -1 1 -1
5267 23 4 0.06 -22.291853909255234 -39.44072015578674 14.00634152651089 1 -3 0
5265 23 5 -0.43 -23.24059483887274 -39.174016605314755 13.511963978247008 1 -3 0
5833 36 6 -0.1 -23.998219807174063 -35.09185400732064 14.9557093271024 -1 1 -1
5268 23 4 0.06 -23.39232221924706 -38.019113715520064 13.57680628524177 1 -3 0
5262 23 1 1 -24.677469367126182 -39.89970042252147 14.410997684260588 1 -3 0
5856 36 4 0.06 -27.246315126180956 -31.224527993276073 14.05569344870281 -1 1 -1
5854 36 4 0.06 -25.51296762153406 -31.48008453219659 13.433317158949674 -1 1 -1
5853 36 5 -0.43 -26.329032375356554 -31.71729257000995 14.22514066538647 -1 1 -1
5266 23 4 0.06 -23.200661024457666 -39.74390609425528 12.604180766195931 1 -3 0
5275 23 4 0.06 -24.49385955441704 -40.10018660171513 16.82755270958683 1 -3 0
8474 96 1 1 -40.49150117551629 -21.27486124452699 17.57854576243625 8 4 -1
5274 23 4 0.06 -24.414403553035097 -38.30851338058419 16.41472116119689 1 -3 0
7952 84 4 0.06 -28.640576602670304 -38.959758712252714 15.77028881930971 1 -2 -1
8602 99 3 -0.5 -16.210031185180924 -37.724501259060496 15.10220285152677 -6 1 -1
5845 36 5 -0.43 -21.65709129156952 -31.800163696494117 18.319400303294465 -1 1 -1
8622 99 4 0.06 -19.07626358139929 -37.90159690414705 15.481016695095946 -6 1 -1
8632 99 4 0.06 -18.55869824257845 -36.089741299980375 13.363837102484347 -6 1 -1
8629 99 5 -0.43 -17.48215077289683 -35.71422312749369 13.68650195531605 -6 1 -1
8480 96 4 0.06 -37.875936603440785 -21.15964866110381 17.76511333719275 8 4 -1
5840 36 4 0.06 -22.106694456674 -35.01059540922029 19.212658560527547 -1 1 -1
7955 84 4 0.06 -29.828788076509316 -39.04659644019069 19.065777458123645 1 -2 -1
8624 99 4 0.06 -18.046284738338244 -38.435936979138866 16.543277284857307 -6 1 -1
8621 99 5 -0.43 -18.44299924876571 -37.48292631514215 16.192037040552535 -6 1 -1
8631 99 4 0.06 -17.58132102949317 -34.68726294589406 13.664710713918527 -6 1 -1
8608 99 1 1 -17.159589295283368 -36.41178432300036 15.387402731228057 -6 1 -1
4786 12 4 0.06 -21.425642728722014 -15.972166388413662 13.968148854613235 -4 -6 0